<?xml version="1.0"?>

<!-- generated on man 03 dec 2012 09:46:20 CET by SUMO gui Version 0.15.0
<?xml version="1.0" encoding="UTF-8"?>

<configuration xmlns:xsi="http://www.w3.org/2001/XMLSchema-instance" xsi:noNamespaceSchemaLocation="http://sumo.sf.net/xsd/sumo-gui.exeConfiguration.xsd">

    <input>
        <net-file value="InductionHobroNet//Data.net.xml"/>
        <route-files value="InductionHobroNet//Data.rou.alt.xml"/>
        <additional-files value="InductionHobroNet//Data.det.xml,InductionHobroNet//Data2.det.xml"/>
    </input>

    <time>
        <begin value="0"/>
    </time>

    <processing>
        <lanechange.allow-swap value="true"/>
    </processing>

    <report>
        <no-step-log value="true"/>
    </report>

    <traci_server>
        <remote-port value="8813"/>
    </traci_server>

</configuration>
-->

<detector>
</detector>
