<?xml version="1.0"?>

<!-- generated on fre 30 nov 2012 14:51:45 CET by SUMO gui Version 0.15.0
<?xml version="1.0" encoding="UTF-8"?>

<configuration xmlns:xsi="http://www.w3.org/2001/XMLSchema-instance" xsi:noNamespaceSchemaLocation="http://sumo.sf.net/xsd/sumo-gui.exeConfiguration.xsd">

    <input>
        <net-file value="InductionHobroNet/Data.net.xml"/>
        <route-files value="InductionHobroNet/Data.rou.alt.xml"/>
        <additional-files value="InductionHobroNet/Data.det.xml,InductionHobroNet/Data2.det.xml"/>
    </input>

    <time>
        <begin value="0"/>
    </time>

    <processing>
        <lanechange.allow-swap value="true"/>
    </processing>

    <report>
        <no-step-log value="true"/>
    </report>

    <traci_server>
        <remote-port value="8813"/>
    </traci_server>

</configuration>
-->

<detector>
   <interval begin="0.00" end="30.00" id="il_cluster_Ju_Hobrovej_sonderSkov_O_Ju_Hobrovej_sonderSkov_OS_Ju_Hobrovej_sonderSkov_V_Ju_Hobrovej_sonderSkov_VS" nVehContrib="0" flow="0.00" occupancy="0.00" speed="-1.00" length="-1.00" nVehEntered="0"/>
   <interval begin="30.00" end="60.00" id="il_cluster_Ju_Hobrovej_sonderSkov_O_Ju_Hobrovej_sonderSkov_OS_Ju_Hobrovej_sonderSkov_V_Ju_Hobrovej_sonderSkov_VS" nVehContrib="1" flow="120.00" occupancy="0.92" speed="14.52" length="4.00" nVehEntered="1"/>
   <interval begin="60.00" end="90.00" id="il_cluster_Ju_Hobrovej_sonderSkov_O_Ju_Hobrovej_sonderSkov_OS_Ju_Hobrovej_sonderSkov_V_Ju_Hobrovej_sonderSkov_VS" nVehContrib="1" flow="120.00" occupancy="0.98" speed="13.55" length="4.00" nVehEntered="1"/>
   <interval begin="90.00" end="120.00" id="il_cluster_Ju_Hobrovej_sonderSkov_O_Ju_Hobrovej_sonderSkov_OS_Ju_Hobrovej_sonderSkov_V_Ju_Hobrovej_sonderSkov_VS" nVehContrib="0" flow="0.00" occupancy="0.00" speed="-1.00" length="-1.00" nVehEntered="0"/>
   <interval begin="120.00" end="150.00" id="il_cluster_Ju_Hobrovej_sonderSkov_O_Ju_Hobrovej_sonderSkov_OS_Ju_Hobrovej_sonderSkov_V_Ju_Hobrovej_sonderSkov_VS" nVehContrib="0" flow="0.00" occupancy="0.00" speed="-1.00" length="-1.00" nVehEntered="0"/>
   <interval begin="150.00" end="180.00" id="il_cluster_Ju_Hobrovej_sonderSkov_O_Ju_Hobrovej_sonderSkov_OS_Ju_Hobrovej_sonderSkov_V_Ju_Hobrovej_sonderSkov_VS" nVehContrib="1" flow="120.00" occupancy="0.91" speed="14.69" length="4.00" nVehEntered="1"/>
   <interval begin="180.00" end="210.00" id="il_cluster_Ju_Hobrovej_sonderSkov_O_Ju_Hobrovej_sonderSkov_OS_Ju_Hobrovej_sonderSkov_V_Ju_Hobrovej_sonderSkov_VS" nVehContrib="1" flow="120.00" occupancy="0.95" speed="13.96" length="4.00" nVehEntered="1"/>
   <interval begin="210.00" end="240.00" id="il_cluster_Ju_Hobrovej_sonderSkov_O_Ju_Hobrovej_sonderSkov_OS_Ju_Hobrovej_sonderSkov_V_Ju_Hobrovej_sonderSkov_VS" nVehContrib="0" flow="0.00" occupancy="0.00" speed="-1.00" length="-1.00" nVehEntered="0"/>
   <interval begin="240.00" end="270.00" id="il_cluster_Ju_Hobrovej_sonderSkov_O_Ju_Hobrovej_sonderSkov_OS_Ju_Hobrovej_sonderSkov_V_Ju_Hobrovej_sonderSkov_VS" nVehContrib="1" flow="120.00" occupancy="0.88" speed="15.20" length="4.00" nVehEntered="1"/>
   <interval begin="270.00" end="296.00" id="il_cluster_Ju_Hobrovej_sonderSkov_O_Ju_Hobrovej_sonderSkov_OS_Ju_Hobrovej_sonderSkov_V_Ju_Hobrovej_sonderSkov_VS" nVehContrib="0" flow="0.00" occupancy="0.00" speed="-1.00" length="-1.00" nVehEntered="0"/>
</detector>
